Program Version,EnergyPlus, Version 9.2.0-921312fa1d, YMD=2020.04.13 15:03
1,5,Environment Title[],Latitude[deg],Longitude[deg],Time Zone[],Elevation[m]
2,8,Day of Simulation[],Month[],Day of Month[],DST Indicator[1=yes 0=no],Hour[],StartMinute[],EndMinute[],DayType
3,5,Cumulative Day of Simulation[],Month[],Day of Month[],DST Indicator[1=yes 0=no],DayType  ! When Daily Report Variables Requested
4,2,Cumulative Days of Simulation[],Month[]  ! When Monthly Report Variables Requested
5,1,Cumulative Days of Simulation[] ! When Run Period Report Variables Requested
6,1,Calendar Year of Simulation[] ! When Annual Report Variables Requested
7,9,Environment,Site Outdoor Air Drybulb Temperature [C] !Monthly [Value,Min,Day,Hour,Minute,Max,Day,Hour,Minute]
8,1,Environment,Site Outdoor Air Wetbulb Temperature [C] !TimeStep
545,1,BUILDING STORY 1 THERMALZONE,Zone Air Temperature [C] !Hourly
546,7,BUILDING STORY 1 THERMALZONE,Zone Air Relative Humidity [%] !Daily [Value,Min,Hour,Minute,Max,Hour,Minute]
11,1,Electricity:Facility [J] !TimeStep
123,1,Gas:Facility [J] !TimeStep
End of Data Dictionary
1,BUFFALO NIAGARA INTL AP ANN CLG .4% CONDNS DB=>MWB 1,  42.93, -78.73,  -5.00, 215.00
2,1, 7,21, 0, 1, 0.00,15.00,SummerDesignDay
8,19.498447168617639
11,134764002.84117804
123,170441791.10275469
2,1, 7,21, 0, 1,15.00,30.00,SummerDesignDay
8,19.455172187031058
11,136569861.81005977
123,173573581.26183496
2,1, 7,21, 0, 1,30.00,45.00,SummerDesignDay
8,19.4118249624254
11,138531712.2277358
123,173055556.6920929
2,1, 7,21, 0, 1,45.00,60.00,SummerDesignDay
8,19.36840579326866
11,140151863.4986738
123,170426996.628697
2,1, 7,21, 0, 1, 0.00,60.00,SummerDesignDay
545,29.383543312773548
2,1, 7,21, 0, 2, 0.00,15.00,SummerDesignDay
8,19.339418379179575
11,135634751.710996
123,107286507.14579615
2,1, 7,21, 0, 2,15.00,30.00,SummerDesignDay
8,19.310398399050294
11,135964097.87739129
123,95775515.3566901
2,1, 7,21, 0, 2,30.00,45.00,SummerDesignDay
8,19.281346189070228
11,136304111.43142504
123,95775515.3566901
2,1, 7,21, 0, 2,45.00,60.00,SummerDesignDay
8,19.25226217922265
11,136673337.39585249
123,95775515.3566901
2,1, 7,21, 0, 2, 0.00,60.00,SummerDesignDay
545,29.981614802676704
2,1, 7,21, 0, 3, 0.00,15.00,SummerDesignDay
8,19.230428408408469
11,136678037.71494598
123,95775515.3566901
2,1, 7,21, 0, 3,15.00,30.00,SummerDesignDay
8,19.208577345747888
11,136818110.78027735
123,95775515.3566901
2,1, 7,21, 0, 3,30.00,45.00,SummerDesignDay
8,19.18670730756924
11,137103925.77626524
123,95775515.3566901
2,1, 7,21, 0, 3,45.00,60.00,SummerDesignDay
8,19.164819553782637
11,136983983.02544258
123,95775515.3566901
2,1, 7,21, 0, 3, 0.00,60.00,SummerDesignDay
545,29.98586524700248
2,1, 7,21, 0, 4, 0.00,15.00,SummerDesignDay
8,19.14291293517813
11,137028821.09269435
123,95775515.3566901
2,1, 7,21, 0, 4,15.00,30.00,SummerDesignDay
8,19.12098348580758
11,137241715.56184773
123,95775515.3566901
2,1, 7,21, 0, 4,30.00,45.00,SummerDesignDay
8,19.099040706060096
11,137068915.244596
123,95775515.3566901
2,1, 7,21, 0, 4,45.00,60.00,SummerDesignDay
8,19.0770792448193
11,137069384.2298161
123,95775515.3566901
2,1, 7,21, 0, 4, 0.00,60.00,SummerDesignDay
545,29.985711324137087
2,1, 7,21, 0, 5, 0.00,15.00,SummerDesignDay
8,19.06243010115264
11,137137728.62203876
123,95775515.3566901
2,1, 7,21, 0, 5,15.00,30.00,SummerDesignDay
8,19.047767571267707
11,137383140.69699986
123,95775515.3566901
2,1, 7,21, 0, 5,30.00,45.00,SummerDesignDay
8,19.033101337600248
11,137248073.39686967
123,95775515.3566901
2,1, 7,21, 0, 5,45.00,60.00,SummerDesignDay
8,19.018427637799467
11,130974044.07460617
123,95775515.3566901
2,1, 7,21, 0, 5, 0.00,60.00,SummerDesignDay
545,29.98546166161549
2,1, 7,21, 0, 6, 0.00,15.00,SummerDesignDay
8,19.033101337600248
11,173977730.40278758
123,95775515.3566901
2,1, 7,21, 0, 6,15.00,30.00,SummerDesignDay
8,19.047767571267707
11,176285166.51463864
123,95775515.3566901
2,1, 7,21, 0, 6,30.00,45.00,SummerDesignDay
8,19.06243010115264
11,169876453.9325029
123,95775515.3566901
2,1, 7,21, 0, 6,45.00,60.00,SummerDesignDay
8,19.0770792448193
11,165856759.52372826
123,95775515.3566901
2,1, 7,21, 0, 6, 0.00,60.00,SummerDesignDay
545,26.129523137119869
2,1, 7,21, 0, 7, 0.00,15.00,SummerDesignDay
8,19.12829527807298
11,185915030.62083743
123,174534823.0219735
2,1, 7,21, 0, 7,15.00,30.00,SummerDesignDay
8,19.179411890099734
11,179223650.75960083
123,171717494.4195227
2,1, 7,21, 0, 7,30.00,45.00,SummerDesignDay
8,19.230428408408469
11,182471432.47577719
123,169234817.59693367
2,1, 7,21, 0, 7,45.00,60.00,SummerDesignDay
8,19.281346189070228
11,179119002.1659523
123,169229353.96296723
2,1, 7,21, 0, 7, 0.00,60.00,SummerDesignDay
545,24.048860148199457
2,1, 7,21, 0, 8, 0.00,15.00,SummerDesignDay
8,19.404591898480026
11,196597440.9506613
123,194381710.4395181
2,1, 7,21, 0, 8,15.00,30.00,SummerDesignDay
8,19.527259399674614
11,197988469.88602258
123,189739103.7495135
2,1, 7,21, 0, 8,30.00,45.00,SummerDesignDay
8,19.649352983497768
11,199295537.0826611
123,182731889.1991641
2,1, 7,21, 0, 8,45.00,60.00,SummerDesignDay
8,19.770887505670989
11,200609314.07886879
123,194371791.94359435
2,1, 7,21, 0, 8, 0.00,60.00,SummerDesignDay
545,23.980001763507074
2,1, 7,21, 0, 9, 0.00,15.00,SummerDesignDay
8,19.906033007607879
11,200875275.30497248
123,193978898.87625904
2,1, 7,21, 0, 9,15.00,30.00,SummerDesignDay
8,20.04048914686797
11,202354845.589901
123,193984822.9963838
2,1, 7,21, 0, 9,30.00,45.00,SummerDesignDay
8,20.174247070804034
11,203645648.33393137
123,177301270.3635332
2,1, 7,21, 0, 9,45.00,60.00,SummerDesignDay
8,20.30732185289352
11,205332890.0704847
123,193975440.28158976
2,1, 7,21, 0, 9, 0.00,60.00,SummerDesignDay
545,23.979995535417389
2,1, 7,21, 0,10, 0.00,15.00,SummerDesignDay
8,20.425808927886167
11,203655609.12088565
123,189897550.34007968
2,1, 7,21, 0,10,15.00,30.00,SummerDesignDay
8,20.54375394491567
11,204969992.5940744
123,178817759.7906406
2,1, 7,21, 0,10,30.00,45.00,SummerDesignDay
8,20.661161978641567
11,206199907.34240387
123,193103584.63201545
2,1, 7,21, 0,10,45.00,60.00,SummerDesignDay
8,20.778037156782458
11,207383083.9996926
123,175618565.354456
2,1, 7,21, 0,10, 0.00,60.00,SummerDesignDay
545,23.979997712800939
2,1, 7,21, 0,11, 0.00,15.00,SummerDesignDay
8,20.880723789184299
11,207050825.70110543
123,188075950.51594637
2,1, 7,21, 0,11,15.00,30.00,SummerDesignDay
8,20.982997220428218
11,208147989.5134525
123,179252747.49555809
2,1, 7,21, 0,11,30.00,45.00,SummerDesignDay
8,21.084868854932993
11,209110324.1109951
123,178092642.89484073
2,1, 7,21, 0,11,45.00,60.00,SummerDesignDay
8,21.186337137460165
11,210251723.61736677
123,189226035.5171739
2,1, 7,21, 0,11, 0.00,60.00,SummerDesignDay
545,23.980130074921708
2,1, 7,21, 0,12, 0.00,15.00,SummerDesignDay
8,21.25375761031924
11,212158937.09254713
123,175584996.12869437
2,1, 7,21, 0,12,15.00,30.00,SummerDesignDay
8,21.321001301623704
11,213007776.39074225
123,193119913.95376189
2,1, 7,21, 0,12,30.00,45.00,SummerDesignDay
8,21.388067863863197
11,213697616.17871396
123,177827363.1081309
2,1, 7,21, 0,12,45.00,60.00,SummerDesignDay
8,21.45495938709981
11,214510658.95511154
123,190876396.75085876
2,1, 7,21, 0,12, 0.00,60.00,SummerDesignDay
545,23.980300444332725
2,1, 7,21, 0,13, 0.00,15.00,SummerDesignDay
8,21.50834731769637
11,213643154.48047296
123,174660280.09178717
2,1, 7,21, 0,13,15.00,30.00,SummerDesignDay
8,21.561624484493195
11,214555039.12687985
123,192659045.8415538
2,1, 7,21, 0,13,30.00,45.00,SummerDesignDay
8,21.614785322779669
11,215258297.61208529
123,174666701.96947576
2,1, 7,21, 0,13,45.00,60.00,SummerDesignDay
8,21.667839996742449
11,216070479.26466958
123,192662544.02543266
2,1, 7,21, 0,13, 0.00,60.00,SummerDesignDay
545,23.980282448742935
2,1, 7,21, 0,14, 0.00,15.00,SummerDesignDay
8,21.700944669131724
11,215213497.4496144
123,173702693.7031703
2,1, 7,21, 0,14,15.00,30.00,SummerDesignDay
8,21.734001168312525
11,215751621.45417527
123,174070369.6737483
2,1, 7,21, 0,14,30.00,45.00,SummerDesignDay
8,21.76701969568146
11,216313105.83318345
123,191788357.42062683
2,1, 7,21, 0,14,45.00,60.00,SummerDesignDay
8,21.799990419629109
11,216866154.26263193
123,173700292.18031729
2,1, 7,21, 0,14, 0.00,60.00,SummerDesignDay
545,23.980131547747879
2,1, 7,21, 0,15, 0.00,15.00,SummerDesignDay
8,21.799990419629109
11,215574073.4370383
123,172658176.49538077
2,1, 7,21, 0,15,15.00,30.00,SummerDesignDay
8,21.799990419629109
11,215541734.959514
123,190075920.54970987
2,1, 7,21, 0,15,30.00,45.00,SummerDesignDay
8,21.799990419629109
11,215559257.7301446
123,174261131.22886778
2,1, 7,21, 0,15,45.00,60.00,SummerDesignDay
8,21.799990419629109
11,215590057.0757213
123,172667676.3525436
2,1, 7,21, 0,15, 0.00,60.00,SummerDesignDay
545,23.9800279702648
2,1, 7,21, 0,16, 0.00,15.00,SummerDesignDay
8,21.76041850322365
11,215149973.49810849
123,178303645.14035807
2,1, 7,21, 0,16,15.00,30.00,SummerDesignDay
8,21.720784448671354
11,214655132.43908189
123,186015583.448816
2,1, 7,21, 0,16,30.00,45.00,SummerDesignDay
8,21.681084832383254
11,214026136.6783559
123,172676889.2756096
2,1, 7,21, 0,16,45.00,60.00,SummerDesignDay
8,21.641326796728476
11,213361790.56412617
123,172662440.4868539
2,1, 7,21, 0,16, 0.00,60.00,SummerDesignDay
545,23.980017046751969
2,1, 7,21, 0,17, 0.00,15.00,SummerDesignDay
8,21.588221131429309
11,212595746.58991874
123,184834941.20109556
2,1, 7,21, 0,17,15.00,30.00,SummerDesignDay
8,21.53499969964235
11,214470361.6637316
123,179491527.3532843
2,1, 7,21, 0,17,30.00,45.00,SummerDesignDay
8,21.481667371722027
11,213710465.4454743
123,172671810.13164089
2,1, 7,21, 0,17,45.00,60.00,SummerDesignDay
8,21.42822317147698
11,212684005.55708794
123,173070346.86076025
2,1, 7,21, 0,17, 0.00,60.00,SummerDesignDay
545,23.98003322656683
2,1, 7,21, 0,18, 0.00,15.00,SummerDesignDay
8,21.36126189357475
11,214448631.44431655
123,192267522.51747746
2,1, 7,21, 0,18,15.00,30.00,SummerDesignDay
8,21.294124428217594
11,213493425.0844825
123,174666061.43651224
2,1, 7,21, 0,18,30.00,45.00,SummerDesignDay
8,21.22680984257423
11,211978495.25296907
123,192662195.11297269
2,1, 7,21, 0,18,45.00,60.00,SummerDesignDay
8,21.15931786227956
11,213540516.4233862
123,174672341.32846488
2,1, 7,21, 0,18, 0.00,60.00,SummerDesignDay
545,23.980263540954149
2,1, 7,21, 0,19, 0.00,15.00,SummerDesignDay
8,21.057742794759656
11,214411359.8671108
123,193980182.46340654
2,1, 7,21, 0,19,15.00,30.00,SummerDesignDay
8,20.95576719398477
11,213696028.36260993
123,191160085.75727297
2,1, 7,21, 0,19,30.00,45.00,SummerDesignDay
8,20.853380308726839
11,212037082.58785809
123,180122063.0906536
2,1, 7,21, 0,19,45.00,60.00,SummerDesignDay
8,20.750583661392644
11,214123670.6244861
123,193976775.89324219
2,1, 7,21, 0,19, 0.00,60.00,SummerDesignDay
545,23.981088874007165
2,1, 7,21, 0,20, 0.00,15.00,SummerDesignDay
8,20.674937724862624
11,215364091.87361733
123,194379350.64918704
2,1, 7,21, 0,20,15.00,30.00,SummerDesignDay
8,20.599073217758077
11,214211869.74341709
123,194382685.23252247
2,1, 7,21, 0,20,30.00,45.00,SummerDesignDay
8,20.522979916101986
11,222942108.1836313
123,184711763.5508641
2,1, 7,21, 0,20,45.00,60.00,SummerDesignDay
8,20.446661088459409
11,221897273.1971235
123,187754291.3050607
2,1, 7,21, 0,20, 0.00,60.00,SummerDesignDay
545,23.98132668875042
2,1, 7,21, 0,21, 0.00,15.00,SummerDesignDay
8,20.38404830308516
11,218401297.48972888
123,193559817.10809983
2,1, 7,21, 0,21,15.00,30.00,SummerDesignDay
8,20.321288186392434
11,217333343.669536
123,187273788.5387955
2,1, 7,21, 0,21,30.00,45.00,SummerDesignDay
8,20.258374971249056
11,216759113.69933165
123,182751853.53691239
2,1, 7,21, 0,21,45.00,60.00,SummerDesignDay
8,20.19530361990708
11,215736791.6237794
123,193563300.9014569
2,1, 7,21, 0,21, 0.00,60.00,SummerDesignDay
545,23.981544170422006
2,1, 7,21, 0,22, 0.00,15.00,SummerDesignDay
8,20.13208244849811
11,216610492.24616675
123,183284170.77474685
2,1, 7,21, 0,22,15.00,30.00,SummerDesignDay
8,20.068702801189454
11,215842129.60531617
123,187988997.40451256
2,1, 7,21, 0,22,30.00,45.00,SummerDesignDay
8,20.00517186709804
11,215073047.64377506
123,193978716.72313024
2,1, 7,21, 0,22,45.00,60.00,SummerDesignDay
8,19.941485234887624
11,214102463.23009873
123,193984653.60330785
2,1, 7,21, 0,22, 0.00,60.00,SummerDesignDay
545,23.981679064457404
2,1, 7,21, 0,23, 0.00,15.00,SummerDesignDay
8,19.891841194221017
11,210736380.59524394
123,175594037.7373482
2,1, 7,21, 0,23,15.00,30.00,SummerDesignDay
8,19.842102082714037
11,210136077.82622115
123,193124969.87012989
2,1, 7,21, 0,23,30.00,45.00,SummerDesignDay
8,19.792267923486706
11,209552038.12923248
123,175592270.5279259
2,1, 7,21, 0,23,45.00,60.00,SummerDesignDay
8,19.7423381019073
11,208805653.08415769
123,193123981.68437595
2,1, 7,21, 0,23, 0.00,60.00,SummerDesignDay
545,23.98178744715577
2,1, 7,21, 0,24, 0.00,15.00,SummerDesignDay
8,19.69231210730981
11,202710353.08821879
123,171592843.57070709
2,1, 7,21, 0,24,15.00,30.00,SummerDesignDay
8,19.64219032081547
11,201853669.340712
123,171581364.74723954
2,1, 7,21, 0,24,30.00,45.00,SummerDesignDay
8,19.591971502420358
11,201518765.14790065
123,173121534.08105106
2,1, 7,21, 0,24,45.00,60.00,SummerDesignDay
8,19.54165603023991
11,200851907.59253804
123,184774132.83900316
2,1, 7,21, 0,24, 0.00,60.00,SummerDesignDay
545,23.981879106734536
3,1, 7,21, 0,SummerDesignDay
546,61.26137128201005,54.52718282327547, 1, 8,75.38936481222268, 6, 5
4,1, 7
7,25.312875000000007,21.0,21, 5,60,30.3,21,14,60
1,BUFFALO NIAGARA INTL AP ANN CLG .4% CONDNS WB=>MDB 1,  42.93, -78.73,  -5.00, 215.00
2,1, 7,21, 0, 1, 0.00,15.00,SummerDesignDay
8,20.03448486328125
11,134852169.08981008
123,170441218.29889978
2,1, 7,21, 0, 1,15.00,30.00,SummerDesignDay
8,19.894989013671876
11,133742123.35260011
123,173189390.93300564
2,1, 7,21, 0, 1,30.00,45.00,SummerDesignDay
8,19.7554931640625
11,133636463.50602563
123,173118357.0603594
2,1, 7,21, 0, 1,45.00,60.00,SummerDesignDay
8,19.615996954992807
11,132640766.09421237
123,171871344.5919958
2,1, 7,21, 0, 1, 0.00,60.00,SummerDesignDay
545,28.89454358778743
2,1, 7,21, 0, 2, 0.00,15.00,SummerDesignDay
8,19.522994995117189
11,128214745.04330993
123,107286566.7826285
2,1, 7,21, 0, 2,15.00,30.00,SummerDesignDay
8,19.42999267578125
11,126783760.59459475
123,95775515.3566901
2,1, 7,21, 0, 2,30.00,45.00,SummerDesignDay
8,19.336990356445314
11,127944319.72055534
123,95775515.3566901
2,1, 7,21, 0, 2,45.00,60.00,SummerDesignDay
8,19.243988037109376
11,126969733.31839302
123,95775515.3566901
2,1, 7,21, 0, 2, 0.00,60.00,SummerDesignDay
545,29.944028407331193
2,1, 7,21, 0, 3, 0.00,15.00,SummerDesignDay
8,19.174240112304689
11,128137691.20162307
123,95775515.3566901
2,1, 7,21, 0, 3,15.00,30.00,SummerDesignDay
8,19.1044921875
11,127930336.4625811
123,95775515.3566901
2,1, 7,21, 0, 3,30.00,45.00,SummerDesignDay
8,19.034744262695314
11,128346066.90721993
123,95775515.3566901
2,1, 7,21, 0, 3,45.00,60.00,SummerDesignDay
8,18.96499632356402
11,128232708.98026088
123,95775515.3566901
2,1, 7,21, 0, 3, 0.00,60.00,SummerDesignDay
545,29.993150126660475
2,1, 7,21, 0, 4, 0.00,15.00,SummerDesignDay
8,18.89524540049439
11,128279545.1123021
123,95775515.3566901
2,1, 7,21, 0, 4,15.00,30.00,SummerDesignDay
8,18.825485229492189
11,128493134.41968803
123,95775515.3566901
2,1, 7,21, 0, 4,30.00,45.00,SummerDesignDay
8,18.7557373046875
11,128319788.17569296
123,95775515.3566901
2,1, 7,21, 0, 4,45.00,60.00,SummerDesignDay
8,18.685989379882814
11,128318428.15206969
123,95775515.3566901
2,1, 7,21, 0, 4, 0.00,60.00,SummerDesignDay
545,29.986244814325948
2,1, 7,21, 0, 5, 0.00,15.00,SummerDesignDay
8,18.63949530606028
11,128392619.64529819
123,95775515.3566901
2,1, 7,21, 0, 5,15.00,30.00,SummerDesignDay
8,18.592987060546876
11,128643195.23025051
123,95775515.3566901
2,1, 7,21, 0, 5,30.00,45.00,SummerDesignDay
8,18.54649177908492
11,128513052.11020372
123,95775515.3566901
2,1, 7,21, 0, 5,45.00,60.00,SummerDesignDay
8,18.49999810986028
11,122248920.1083852
123,95775515.3566901
2,1, 7,21, 0, 5, 0.00,60.00,SummerDesignDay
545,29.985749669965178
2,1, 7,21, 0, 6, 0.00,15.00,SummerDesignDay
8,18.54649177908492
11,168038223.26684625
123,95775515.3566901
2,1, 7,21, 0, 6,15.00,30.00,SummerDesignDay
8,18.592987060546876
11,170415665.04319994
123,95775515.3566901
2,1, 7,21, 0, 6,30.00,45.00,SummerDesignDay
8,18.63949530606028
11,163394981.0374522
123,95775515.3566901
2,1, 7,21, 0, 6,45.00,60.00,SummerDesignDay
8,18.685989379882814
11,159355592.48258604
123,95775515.3566901
2,1, 7,21, 0, 6, 0.00,60.00,SummerDesignDay
545,26.13349200003552
2,1, 7,21, 0, 7, 0.00,15.00,SummerDesignDay
8,18.848739624023439
11,179994244.5325663
123,174534823.02190376
2,1, 7,21, 0, 7,15.00,30.00,SummerDesignDay
8,19.011489868164064
11,173005007.85366944
123,171717494.21548427
2,1, 7,21, 0, 7,30.00,45.00,SummerDesignDay
8,19.174240112304689
11,176682858.15787424
123,169234817.5967245
2,1, 7,21, 0, 7,45.00,60.00,SummerDesignDay
8,19.336990356445314
11,173543786.26753629
123,169229353.96275486
2,1, 7,21, 0, 7, 0.00,60.00,SummerDesignDay
545,24.047550907054757
2,1, 7,21, 0, 8, 0.00,15.00,SummerDesignDay
8,19.73223876953125
11,191730132.353957
123,194381710.43943335
2,1, 7,21, 0, 8,15.00,30.00,SummerDesignDay
8,20.127487182617189
11,193921205.2561837
123,189739104.18430088
2,1, 7,21, 0, 8,30.00,45.00,SummerDesignDay
8,20.522735595703126
11,196088522.14198066
123,182731888.76497079
2,1, 7,21, 0, 8,45.00,60.00,SummerDesignDay
8,20.917992548817627
11,198304609.42542226
123,194371791.94349728
2,1, 7,21, 0, 8, 0.00,60.00,SummerDesignDay
545,23.98025211249948
2,1, 7,21, 0, 9, 0.00,15.00,SummerDesignDay
8,21.35974061960832
11,199606826.04310433
123,193978898.87616427
2,1, 7,21, 0, 9,15.00,30.00,SummerDesignDay
8,21.80149265905943
11,202178295.86837793
123,193984822.99629555
2,1, 7,21, 0, 9,30.00,45.00,SummerDesignDay
8,22.243240356445314
11,204616139.3104363
123,177301270.36336894
2,1, 7,21, 0, 9,45.00,60.00,SummerDesignDay
8,22.420023807696297
11,206634401.17815296
123,193975440.28149069
2,1, 7,21, 0, 9, 0.00,60.00,SummerDesignDay
545,23.98019062099121
2,1, 7,21, 0,10, 0.00,15.00,SummerDesignDay
8,22.52939429544905
11,205041804.78185094
123,189897550.66436256
2,1, 7,21, 0,10,15.00,30.00,SummerDesignDay
8,22.638294333869877
11,206368674.98598699
123,178817759.46696855
2,1, 7,21, 0,10,30.00,45.00,SummerDesignDay
8,22.74672657663008
11,207580706.31102405
123,193103584.9546678
2,1, 7,21, 0,10,45.00,60.00,SummerDesignDay
8,22.854695006230427
11,208741013.00085015
123,175618565.03257368
2,1, 7,21, 0,10, 0.00,60.00,SummerDesignDay
545,23.979988431710905
2,1, 7,21, 0,11, 0.00,15.00,SummerDesignDay
8,22.949580571591015
11,208385775.85745088
123,188075950.81185926
2,1, 7,21, 0,11,15.00,30.00,SummerDesignDay
8,23.0441059976386
11,209462388.6116449
123,179252747.20016933
2,1, 7,21, 0,11,30.00,45.00,SummerDesignDay
8,23.138280905067519
11,210405988.97353695
123,178092643.18927718
2,1, 7,21, 0,11,45.00,60.00,SummerDesignDay
8,23.232104587122938
11,211530347.45169405
123,189226035.2228106
2,1, 7,21, 0,11, 0.00,60.00,SummerDesignDay
545,23.980091469804927
2,1, 7,21, 0,12, 0.00,15.00,SummerDesignDay
8,23.294458182257715
11,213419466.39681015
123,175584996.1285107
2,1, 7,21, 0,12,15.00,30.00,SummerDesignDay
8,23.356656880409554
11,214255150.0056429
123,193119913.95365907
2,1, 7,21, 0,12,30.00,45.00,SummerDesignDay
8,23.41870192494561
11,214937441.74474067
123,177827363.42942436
2,1, 7,21, 0,12,45.00,60.00,SummerDesignDay
8,23.480593542408348
11,215749483.56796388
123,190876396.4295804
2,1, 7,21, 0,12, 0.00,60.00,SummerDesignDay
545,23.980268585448529
2,1, 7,21, 0,13, 0.00,15.00,SummerDesignDay
8,23.529998675577663
11,214883065.20802564
123,174660280.09159536
2,1, 7,21, 0,13,15.00,30.00,SummerDesignDay
8,23.579306427538606
11,215795603.35519014
123,192659045.84144918
2,1, 7,21, 0,13,30.00,45.00,SummerDesignDay
8,23.62851242394268
11,216498400.03966854
123,174666701.96928818
2,1, 7,21, 0,13,45.00,60.00,SummerDesignDay
8,23.677626430315248
11,217309346.31381528
123,192662544.02533037
2,1, 7,21, 0,13, 0.00,60.00,SummerDesignDay
545,23.980243111076029
2,1, 7,21, 0,14, 0.00,15.00,SummerDesignDay
8,23.708274654966226
11,216448846.67451037
123,173702693.70298196
2,1, 7,21, 0,14,15.00,30.00,SummerDesignDay
8,23.738881563111908
11,216977733.8677734
123,174070369.94672323
2,1, 7,21, 0,14,30.00,45.00,SummerDesignDay
8,23.76945433566311
11,217539793.73271565
123,191788357.1476007
2,1, 7,21, 0,14,45.00,60.00,SummerDesignDay
8,23.799986320868798
11,218090955.98959566
123,173700292.1801275
2,1, 7,21, 0,14, 0.00,60.00,SummerDesignDay
545,23.980269346103968
2,1, 7,21, 0,15, 0.00,15.00,SummerDesignDay
8,23.799986320868798
11,216793277.52695344
123,172658176.4951725
2,1, 7,21, 0,15,15.00,30.00,SummerDesignDay
8,23.799986320868798
11,216756453.17876474
123,190075920.8045184
2,1, 7,21, 0,15,30.00,45.00,SummerDesignDay
8,23.799986320868798
11,216768654.30638657
123,174261130.97467897
2,1, 7,21, 0,15,45.00,60.00,SummerDesignDay
8,23.799986320868798
11,216788855.91728995
123,172667676.35234178
2,1, 7,21, 0,15, 0.00,60.00,SummerDesignDay
545,23.98008989447795
2,1, 7,21, 0,16, 0.00,15.00,SummerDesignDay
8,23.763342191943058
11,216353001.81966139
123,178303645.3945824
2,1, 7,21, 0,16,15.00,30.00,SummerDesignDay
8,23.726643883214217
11,215853610.55720888
123,186015583.1947472
2,1, 7,21, 0,16,30.00,45.00,SummerDesignDay
8,23.689888257911428
11,215223401.94628103
123,172676889.275414
2,1, 7,21, 0,16,45.00,60.00,SummerDesignDay
8,23.653081835774505
11,214564579.95102106
123,172662440.48664848
2,1, 7,21, 0,16, 0.00,60.00,SummerDesignDay
545,23.98020492019859
2,1, 7,21, 0,17, 0.00,15.00,SummerDesignDay
8,23.603923719146495
11,213795584.9412875
123,184834941.4556883
2,1, 7,21, 0,17,15.00,30.00,SummerDesignDay
8,23.55466446732659
11,213136208.68307118
123,179491527.09910203
2,1, 7,21, 0,17,30.00,45.00,SummerDesignDay
8,23.505308555416005
11,214856351.03120939
123,172671810.13144184
2,1, 7,21, 0,17,45.00,60.00,SummerDesignDay
8,23.4558543827806
11,213906028.18823026
123,173070347.11484493
2,1, 7,21, 0,17, 0.00,60.00,SummerDesignDay
545,23.980067366918307
2,1, 7,21, 0,18, 0.00,15.00,SummerDesignDay
8,23.393901322312414
11,215643895.4669359
123,192267522.27668567
2,1, 7,21, 0,18,15.00,30.00,SummerDesignDay
8,23.33179517863699
11,214672925.23049084
123,174666061.43635936
2,1, 7,21, 0,18,30.00,45.00,SummerDesignDay
8,23.269534315322305
11,213143229.4627094
123,192662195.11288933
2,1, 7,21, 0,18,45.00,60.00,SummerDesignDay
8,23.207119318496696
11,212159738.61156366
123,174672341.32831539
2,1, 7,21, 0,18, 0.00,60.00,SummerDesignDay
545,23.980280457817615
2,1, 7,21, 0,19, 0.00,15.00,SummerDesignDay
8,23.11320144187493
11,215359696.0417334
123,193980182.46333099
2,1, 7,21, 0,19,15.00,30.00,SummerDesignDay
8,23.0189367248522
11,213582661.94347967
123,191160086.07330657
2,1, 7,21, 0,19,30.00,45.00,SummerDesignDay
8,22.924312313607478
11,213071011.57890926
123,180122062.7751717
2,1, 7,21, 0,19,45.00,60.00,SummerDesignDay
8,22.82933132300861
11,214128268.4659166
123,193976775.8931638
2,1, 7,21, 0,19, 0.00,60.00,SummerDesignDay
545,23.981189157481567
2,1, 7,21, 0,20, 0.00,15.00,SummerDesignDay
8,22.75945089348938
11,216494829.04642845
123,194379350.6491158
2,1, 7,21, 0,20,15.00,30.00,SummerDesignDay
8,22.689380537094857
11,215359827.3632133
123,194382685.23245458
2,1, 7,21, 0,20,30.00,45.00,SummerDesignDay
8,22.6191110648834
11,224065287.25995786
123,184711763.90416745
2,1, 7,21, 0,20,45.00,60.00,SummerDesignDay
8,22.548645905899027
11,223021846.4610302
123,187754290.95197053
2,1, 7,21, 0,20, 0.00,60.00,SummerDesignDay
545,23.981358295127916
2,1, 7,21, 0,21, 0.00,15.00,SummerDesignDay
8,22.490844247869313
11,219537794.52148546
123,193559817.10801823
2,1, 7,21, 0,21,15.00,30.00,SummerDesignDay
8,22.43291428736413
11,218477210.07908619
123,187273788.82887263
2,1, 7,21, 0,21,30.00,45.00,SummerDesignDay
8,22.374851547664414
11,217905907.52036954
123,182751853.24721546
2,1, 7,21, 0,21,45.00,60.00,SummerDesignDay
8,22.312987690310977
11,216873809.6193192
123,193563300.90137834
2,1, 7,21, 0,21, 0.00,60.00,SummerDesignDay
545,23.98157122757617
2,1, 7,21, 0,22, 0.00,15.00,SummerDesignDay
8,22.103744506835939
11,217303181.58322156
123,183284171.09711255
2,1, 7,21, 0,22,15.00,30.00,SummerDesignDay
8,21.894485473632814
11,216063544.5119546
123,187988997.0823221
2,1, 7,21, 0,22,30.00,45.00,SummerDesignDay
8,21.685237627773917
11,214800754.8869776
123,193978716.72305203
2,1, 7,21, 0,22,45.00,60.00,SummerDesignDay
8,21.475995587251039
11,213335473.2250387
123,193984653.603235
2,1, 7,21, 0,22, 0.00,60.00,SummerDesignDay
545,23.981667477306066
2,1, 7,21, 0,23, 0.00,15.00,SummerDesignDay
8,21.313245597319697
11,209575148.96950666
123,175594037.73720569
2,1, 7,21, 0,23,15.00,30.00,SummerDesignDay
8,21.150492515933274
11,208593835.58915345
123,193124969.87005008
2,1, 7,21, 0,23,30.00,45.00,SummerDesignDay
8,20.98774680278067
11,207641072.19244234
123,175592270.52778156
2,1, 7,21, 0,23,45.00,60.00,SummerDesignDay
8,20.824995071347869
11,206534407.60962446
123,193123981.68429513
2,1, 7,21, 0,23, 0.00,60.00,SummerDesignDay
545,23.98176909014437
2,1, 7,21, 0,24, 0.00,15.00,SummerDesignDay
8,20.662246704101564
11,200085409.70574428
123,171592843.57054425
2,1, 7,21, 0,24,15.00,30.00,SummerDesignDay
8,20.499496459960939
11,198881199.4210865
123,171581364.74707086
2,1, 7,21, 0,24,30.00,45.00,SummerDesignDay
8,20.336746215820314
11,198205000.56468
123,173121534.27199198
2,1, 7,21, 0,24,45.00,60.00,SummerDesignDay
8,20.173995840857065
11,197203078.7527087
123,184774132.83813728
2,1, 7,21, 0,24, 0.00,60.00,SummerDesignDay
545,23.9818872454953
3,1, 7,21, 0,SummerDesignDay
546,64.93209750343658,59.11432458555772, 7,60,79.91955571383753, 6, 5
4,1, 7
7,22.812875000000003,18.5,21, 5,60,27.8,21,14,60
1,BUFFALO NIAGARA INTL AP ANN HTG 99.6% CONDNS DB 1,  42.93, -78.73,  -5.00, 215.00
2,1, 1,21, 0, 1, 0.00,15.00,WinterDesignDay
8,-16.3
11,27652849.19925743
123,399897650.95838549
2,1, 1,21, 0, 1,15.00,30.00,WinterDesignDay
8,-16.3
11,27883658.57348861
123,406523315.5363292
2,1, 1,21, 0, 1,30.00,45.00,WinterDesignDay
8,-16.3
11,27922004.937984598
123,411240747.27741917
2,1, 1,21, 0, 1,45.00,60.00,WinterDesignDay
8,-16.3
11,27893683.40103324
123,411243031.9052499
2,1, 1,21, 0, 1, 0.00,60.00,WinterDesignDay
545,21.0
2,1, 1,21, 0, 2, 0.00,15.00,WinterDesignDay
8,-16.3
11,22059219.16530641
123,321145979.37097796
2,1, 1,21, 0, 2,15.00,30.00,WinterDesignDay
8,-16.3
11,22043443.114256227
123,312427311.8367871
2,1, 1,21, 0, 2,30.00,45.00,WinterDesignDay
8,-16.3
11,22043443.114256227
123,312427311.83973678
2,1, 1,21, 0, 2,45.00,60.00,WinterDesignDay
8,-16.3
11,22229415.82001336
123,312427311.84258916
2,1, 1,21, 0, 2, 0.00,60.00,WinterDesignDay
545,21.0
2,1, 1,21, 0, 3, 0.00,15.00,WinterDesignDay
8,-16.3
11,22043443.114256227
123,312427311.84534719
2,1, 1,21, 0, 3,15.00,30.00,WinterDesignDay
8,-16.3
11,22043443.114256227
123,312427311.8480186
2,1, 1,21, 0, 3,30.00,45.00,WinterDesignDay
8,-16.3
11,22229397.872685955
123,312427311.85059466
2,1, 1,21, 0, 3,45.00,60.00,WinterDesignDay
8,-16.3
11,22043443.114256227
123,312427311.8530869
2,1, 1,21, 0, 3, 0.00,60.00,WinterDesignDay
545,20.999999999999994
2,1, 1,21, 0, 4, 0.00,15.00,WinterDesignDay
8,-16.3
11,22043443.114256227
123,312427311.8555016
2,1, 1,21, 0, 4,15.00,30.00,WinterDesignDay
8,-16.3
11,22229379.883563285
123,312427311.8578335
2,1, 1,21, 0, 4,30.00,45.00,WinterDesignDay
8,-16.3
11,22043443.114256227
123,312427311.86009
2,1, 1,21, 0, 4,45.00,60.00,WinterDesignDay
8,-16.3
11,22043443.114256227
123,312427311.86227169
2,1, 1,21, 0, 4, 0.00,60.00,WinterDesignDay
545,20.999999999999998
2,1, 1,21, 0, 5, 0.00,15.00,WinterDesignDay
8,-16.3
11,22043443.114256227
123,312427311.86438116
2,1, 1,21, 0, 5,15.00,30.00,WinterDesignDay
8,-16.3
11,22229419.42642063
123,312427311.8664247
2,1, 1,21, 0, 5,30.00,45.00,WinterDesignDay
8,-16.3
11,22043443.114256227
123,312427311.86839309
2,1, 1,21, 0, 5,45.00,60.00,WinterDesignDay
8,-16.3
11,22043443.114256227
123,312427311.87029919
2,1, 1,21, 0, 5, 0.00,60.00,WinterDesignDay
545,21.0
2,1, 1,21, 0, 6, 0.00,15.00,WinterDesignDay
8,-16.3
11,22229401.487504975
123,312427311.8721426
2,1, 1,21, 0, 6,15.00,30.00,WinterDesignDay
8,-16.3
11,22043443.114256227
123,312427311.87391629
2,1, 1,21, 0, 6,30.00,45.00,WinterDesignDay
8,-16.3
11,22043443.114256227
123,312427311.8756499
2,1, 1,21, 0, 6,45.00,60.00,WinterDesignDay
8,-16.3
11,22229383.506791574
123,312427311.8773133
2,1, 1,21, 0, 6, 0.00,60.00,WinterDesignDay
545,21.000000000000005
2,1, 1,21, 0, 7, 0.00,15.00,WinterDesignDay
8,-16.3
11,25579173.12167318
123,400454025.49811109
2,1, 1,21, 0, 7,15.00,30.00,WinterDesignDay
8,-16.3
11,25579173.12167318
123,410756067.94254019
2,1, 1,21, 0, 7,30.00,45.00,WinterDesignDay
8,-16.3
11,25579173.12167318
123,410761351.3262956
2,1, 1,21, 0, 7,45.00,60.00,WinterDesignDay
8,-16.3
11,25765153.026612529
123,404648377.91405716
2,1, 1,21, 0, 7, 0.00,60.00,WinterDesignDay
545,21.0
2,1, 1,21, 0, 8, 0.00,15.00,WinterDesignDay
8,-16.3
11,25579173.12167318
123,400314973.7409764
2,1, 1,21, 0, 8,15.00,30.00,WinterDesignDay
8,-16.3
11,25579173.12167318
123,410756035.0605964
2,1, 1,21, 0, 8,30.00,45.00,WinterDesignDay
8,-16.3
11,25765135.096081225
123,410761320.1471356
2,1, 1,21, 0, 8,45.00,60.00,WinterDesignDay
8,-16.3
11,15675536.044688158
123,404787499.4631417
2,1, 1,21, 0, 8, 0.00,60.00,WinterDesignDay
545,21.000000000000015
2,1, 1,21, 0, 9, 0.00,15.00,WinterDesignDay
8,-16.3
11,15675536.044688158
123,400176021.58366087
2,1, 1,21, 0, 9,15.00,30.00,WinterDesignDay
8,-16.3
11,15861480.046764983
123,410756002.1908495
2,1, 1,21, 0, 9,30.00,45.00,WinterDesignDay
8,-16.3
11,15675536.044688158
123,410761288.9794726
2,1, 1,21, 0, 9,45.00,60.00,WinterDesignDay
8,-16.3
11,15675536.044688158
123,404926522.0702462
2,1, 1,21, 0, 9, 0.00,60.00,WinterDesignDay
545,21.0
2,1, 1,21, 0,10, 0.00,15.00,WinterDesignDay
8,-16.3
11,30421668.99505257
123,418477612.08491566
2,1, 1,21, 0,10,15.00,30.00,WinterDesignDay
8,-16.3
11,30508503.036208124
123,427331189.9478785
2,1, 1,21, 0,10,30.00,45.00,WinterDesignDay
8,-16.3
11,30404826.251382963
123,427331189.94888368