Program Version,EnergyPlus, Version 9.2.0-921312fa1d, YMD=2020.04.13 15:04
1,5,Environment Title[],Latitude[deg],Longitude[deg],Time Zone[],Elevation[m]
2,8,Day of Simulation[],Month[],Day of Month[],DST Indicator[1=yes 0=no],Hour[],StartMinute[],EndMinute[],DayType
3,5,Cumulative Day of Simulation[],Month[],Day of Month[],DST Indicator[1=yes 0=no],DayType  ! When Daily Report Variables Requested
4,2,Cumulative Days of Simulation[],Month[]  ! When Monthly Report Variables Requested
5,1,Cumulative Days of Simulation[] ! When Run Period Report Variables Requested
6,1,Calendar Year of Simulation[] ! When Annual Report Variables Requested
7,9,Environment,Site Outdoor Air Drybulb Temperature [C] !Monthly [Value,Min,Day,Hour,Minute,Max,Day,Hour,Minute]
8,1,Environment,Site Outdoor Air Wetbulb Temperature [C] !TimeStep
696,1,BUILDING STORY 1 THERMALZONE,Zone Air Temperature [C] !Hourly
697,7,BUILDING STORY 1 THERMALZONE,Zone Air Relative Humidity [%] !Daily [Value,Min,Hour,Minute,Max,Hour,Minute]
736,1,BUILDING STORY 2 THERMALZONE,Zone Air Temperature [C] !Hourly
737,7,BUILDING STORY 2 THERMALZONE,Zone Air Relative Humidity [%] !Daily [Value,Min,Hour,Minute,Max,Hour,Minute]
776,1,BUILDING STORY 3 THERMALZONE,Zone Air Temperature [C] !Hourly
777,7,BUILDING STORY 3 THERMALZONE,Zone Air Relative Humidity [%] !Daily [Value,Min,Hour,Minute,Max,Hour,Minute]
816,1,BUILDING STORY 4 THERMALZONE,Zone Air Temperature [C] !Hourly
817,7,BUILDING STORY 4 THERMALZONE,Zone Air Relative Humidity [%] !Daily [Value,Min,Hour,Minute,Max,Hour,Minute]
11,1,Electricity:Facility [J] !TimeStep
256,1,Gas:Facility [J] !TimeStep
End of Data Dictionary
1,BUFFALO NIAGARA INTL AP ANN CLG .4% CONDNS DB=>MWB 1,  42.93, -78.73,  -5.00, 215.00
2,1, 7,21, 0, 1, 0.00,15.00,SummerDesignDay
8,19.498447168617639
11,4071582412.187609
256,2870724300.591381
2,1, 7,21, 0, 1,15.00,30.00,SummerDesignDay
8,19.455172187031058
11,4071963561.8525965
256,2870693917.4798815
2,1, 7,21, 0, 1,30.00,45.00,SummerDesignDay
8,19.4118249624254
11,4071948884.746797
256,2870600377.4532606
2,1, 7,21, 0, 1,45.00,60.00,SummerDesignDay
8,19.36840579326866
11,4070623398.9645769
256,2870458088.0339038
2,1, 7,21, 0, 1, 0.00,60.00,SummerDesignDay
696,28.44181819688569
736,26.258595941620486
776,25.99329487357428
816,26.699507598885153
2,1, 7,21, 0, 2, 0.00,15.00,SummerDesignDay
8,19.339418379179575
11,3749237767.7860038
256,1799858844.2863334
2,1, 7,21, 0, 2,15.00,30.00,SummerDesignDay
8,19.310398399050294
11,3778627460.064402
256,1614319142.6855026
2,1, 7,21, 0, 2,30.00,45.00,SummerDesignDay
8,19.281346189070228
11,3782206714.6343138
256,1614319142.6855026
2,1, 7,21, 0, 2,45.00,60.00,SummerDesignDay
8,19.25226217922265
11,3805469256.070804
256,1614319142.6855026
2,1, 7,21, 0, 2, 0.00,60.00,SummerDesignDay
696,29.518948708844865
736,26.35900444567845
776,29.83013193832047
816,26.699217341236687
2,1, 7,21, 0, 3, 0.00,15.00,SummerDesignDay
8,19.230428408408469
11,3821749010.1210296
256,1614319142.6855026
2,1, 7,21, 0, 3,15.00,30.00,SummerDesignDay
8,19.208577345747888
11,3833626527.852251
256,1614319142.6855026
2,1, 7,21, 0, 3,30.00,45.00,SummerDesignDay
8,19.18670730756924
11,3839639486.4788215
256,1614319142.6855026
2,1, 7,21, 0, 3,45.00,60.00,SummerDesignDay
8,19.164819553782637
11,3843409534.4057199
256,1614319142.6855026
2,1, 7,21, 0, 3, 0.00,60.00,SummerDesignDay
696,29.691025509229367
736,26.458532718570539
776,29.975497820307774
816,26.698877629693877
2,1, 7,21, 0, 4, 0.00,15.00,SummerDesignDay
8,19.14291293517813
11,3845925884.2935907
256,1614319142.6855026
2,1, 7,21, 0, 4,15.00,30.00,SummerDesignDay
8,19.12098348580758
11,3848291060.788762
256,1614319142.6855026
2,1, 7,21, 0, 4,30.00,45.00,SummerDesignDay
8,19.099040706060096
11,3850568702.4138786
256,1614319142.6855026
2,1, 7,21, 0, 4,45.00,60.00,SummerDesignDay
8,19.0770792448193
11,3852192219.0043499
256,1614319142.6855026
2,1, 7,21, 0, 4, 0.00,60.00,SummerDesignDay
696,29.781434096767258
736,26.541682786359389
776,29.97567129467333
816,26.698889417308285
2,1, 7,21, 0, 5, 0.00,15.00,SummerDesignDay
8,19.06243010115264
11,3854114132.3746626
256,1614319142.6855026
2,1, 7,21, 0, 5,15.00,30.00,SummerDesignDay
8,19.047767571267707
11,3855881756.394089
256,1614319142.6855026
2,1, 7,21, 0, 5,30.00,45.00,SummerDesignDay
8,19.033101337600248
11,3857697620.271818
256,1614319142.6855026
2,1, 7,21, 0, 5,45.00,60.00,SummerDesignDay
8,19.018427637799467
11,3743630710.465802
256,1614319142.6855026
2,1, 7,21, 0, 5, 0.00,60.00,SummerDesignDay
696,29.859280126429828
736,26.621107052670248
776,29.975910511140044
816,26.698893300111505
2,1, 7,21, 0, 6, 0.00,15.00,SummerDesignDay
8,19.033101337600248
11,4172932242.7530887
256,1614319142.6855026
2,1, 7,21, 0, 6,15.00,30.00,SummerDesignDay
8,19.047767571267707
11,4088967308.0478036
256,1614319142.6855026
2,1, 7,21, 0, 6,30.00,45.00,SummerDesignDay
8,19.06243010115264
11,4013517330.8024475
256,1614319142.6855026
2,1, 7,21, 0, 6,45.00,60.00,SummerDesignDay
8,19.0770792448193
11,3936437471.811223
256,1614319142.6855026
2,1, 7,21, 0, 6, 0.00,60.00,SummerDesignDay
696,26.088585909469957
736,25.707963011708967
776,28.017713914704147
816,25.7134172545035
2,1, 7,21, 0, 7, 0.00,15.00,SummerDesignDay
8,19.12829527807298
11,4555203648.917029
256,2857980130.1449806
2,1, 7,21, 0, 7,15.00,30.00,SummerDesignDay
8,19.179411890099734
11,4306719063.045327
256,2850223170.170083
2,1, 7,21, 0, 7,30.00,45.00,SummerDesignDay
8,19.230428408408469
11,4413672140.522744
256,2850135817.780615
2,1, 7,21, 0, 7,45.00,60.00,SummerDesignDay
8,19.281346189070228
11,4362634490.318965
256,2850047290.6492307
2,1, 7,21, 0, 7, 0.00,60.00,SummerDesignDay
696,24.055311612789944
736,25.011163585041506
776,26.049851465241458
816,25.006256242778073
2,1, 7,21, 0, 8, 0.00,15.00,SummerDesignDay
8,19.404591898480026
11,4808017853.215915
256,3275744319.011266
2,1, 7,21, 0, 8,15.00,30.00,SummerDesignDay
8,19.527259399674614
11,4729596098.685568
256,3275679060.986575
2,1, 7,21, 0, 8,30.00,45.00,SummerDesignDay
8,19.649352983497768
11,4763514059.532705
256,3068666891.401845
2,1, 7,21, 0, 8,45.00,60.00,SummerDesignDay
8,19.770887505670989
11,4761678387.004247
256,3207242854.549776
2,1, 7,21, 0, 8, 0.00,60.00,SummerDesignDay
696,23.990051888251867
736,24.044095854692058
776,25.987805658103395
816,24.038895381224056
2,1, 7,21, 0, 9, 0.00,15.00,SummerDesignDay
8,19.906033007607879
11,4741960842.5042519
256,3268806982.5115168
2,1, 7,21, 0, 9,15.00,30.00,SummerDesignDay
8,20.04048914686797
11,4746294582.813414
256,3268913408.270561
2,1, 7,21, 0, 9,30.00,45.00,SummerDesignDay
8,20.174247070804034
11,4741411458.118383
256,2986967469.7277519
2,1, 7,21, 0, 9,45.00,60.00,SummerDesignDay
8,20.30732185289352
11,4750771726.7495
256,3268760248.1261799
2,1, 7,21, 0, 9, 0.00,60.00,SummerDesignDay
696,23.988039256352118
736,23.999121484520118
776,25.98547268190276
816,23.99842942877406
2,1, 7,21, 0,10, 0.00,15.00,SummerDesignDay
8,20.425808927886167
11,4708390515.44654
256,3231837146.651963
2,1, 7,21, 0,10,15.00,30.00,SummerDesignDay
8,20.54375394491567
11,4715990665.916657
256,2980604743.702935
2,1, 7,21, 0,10,30.00,45.00,SummerDesignDay
8,20.661161978641567
11,4734152853.922787
256,3254391595.352867
2,1, 7,21, 0,10,45.00,60.00,SummerDesignDay
8,20.778037156782458
11,4741753373.916698
256,2958097141.312666
2,1, 7,21, 0,10, 0.00,60.00,SummerDesignDay
696,23.987994450907768
736,23.999162211037335
776,25.985401336418485
816,23.99840497029065
2,1, 7,21, 0,11, 0.00,15.00,SummerDesignDay
8,20.880723789184299
11,4721134515.042476
256,3152555825.2677319
2,1, 7,21, 0,11,15.00,30.00,SummerDesignDay
8,20.982997220428218
11,4725176685.160612
256,3036291970.3319866
2,1, 7,21, 0,11,30.00,45.00,SummerDesignDay
8,21.084868854932993
11,4728600485.482337
256,2963137751.962364
2,1, 7,21, 0,11,45.00,60.00,SummerDesignDay
8,21.186337137460165
11,4733080601.403635
256,3225564372.247783
2,1, 7,21, 0,11, 0.00,60.00,SummerDesignDay
696,23.987961442200839
736,23.99916808454019
776,25.98538146709219
816,23.998408144114877
2,1, 7,21, 0,12, 0.00,15.00,SummerDesignDay
8,21.25375761031924
11,4759837088.309223
256,2957954392.492381
2,1, 7,21, 0,12,15.00,30.00,SummerDesignDay
8,21.321001301623704
11,4761206677.625371
256,3254303338.3343536
2,1, 7,21, 0,12,30.00,45.00,SummerDesignDay
8,21.388067863863197
11,4761765843.273072
256,2957937853.59472
2,1, 7,21, 0,12,45.00,60.00,SummerDesignDay
8,21.45495938709981
11,4764745669.691489
256,3254294118.6201517
2,1, 7,21, 0,12, 0.00,60.00,SummerDesignDay
696,23.987910325610004
736,23.999170326414196
776,25.985356632387999
816,23.998421637517603
2,1, 7,21, 0,13, 0.00,15.00,SummerDesignDay
8,21.50834731769637
11,4747566676.914735
256,2942313864.8010265
2,1, 7,21, 0,13,15.00,30.00,SummerDesignDay
8,21.561624484493195
11,4751857928.465451
256,3246509126.60189
2,1, 7,21, 0,13,30.00,45.00,SummerDesignDay
8,21.614785322779669
11,4755379438.241886
256,2942435302.5807945
2,1, 7,21, 0,13,45.00,60.00,SummerDesignDay
8,21.667839996742449
11,4760679421.026671
256,3156448771.564625
2,1, 7,21, 0,13, 0.00,60.00,SummerDesignDay
696,23.987822204565704
736,23.999150713217476
776,25.98528825179382
816,23.998413356805388
2,1, 7,21, 0,14, 0.00,15.00,SummerDesignDay
8,21.700944669131724
11,4741172857.910907
256,3018389191.645217
2,1, 7,21, 0,14,15.00,30.00,SummerDesignDay
8,21.734001168312525
11,4745429653.049067
256,2925833730.240755
2,1, 7,21, 0,14,30.00,45.00,SummerDesignDay
8,21.76701969568146
11,4757991023.460102
256,3174519300.1846258
2,1, 7,21, 0,14,45.00,60.00,SummerDesignDay
8,21.799990419629109
11,4765089194.553785
256,2989656402.644239
2,1, 7,21, 0,14, 0.00,60.00,SummerDesignDay
696,23.98777143167389
736,23.999128096843795
776,25.985247544346405
816,23.998403489936924
2,1, 7,21, 0,15, 0.00,15.00,SummerDesignDay
8,21.799990419629109
11,4734915560.1526169
256,2908446617.4457809
2,1, 7,21, 0,15,15.00,30.00,SummerDesignDay
8,21.799990419629109
11,4734704003.128884
256,3019315193.321858
2,1, 7,21, 0,15,30.00,45.00,SummerDesignDay
8,21.799990419629109
11,4736040411.892665
256,3118554288.87757
2,1, 7,21, 0,15,45.00,60.00,SummerDesignDay
8,21.799990419629109
11,4738328872.055831
256,2908623658.340434
2,1, 7,21, 0,15, 0.00,60.00,SummerDesignDay
696,23.987795859203886
736,23.999123888956065
776,25.985246334140883
816,23.998415194618575
2,1, 7,21, 0,16, 0.00,15.00,SummerDesignDay
8,21.76041850322365
11,4730150501.717841
256,2908385210.077348
2,1, 7,21, 0,16,15.00,30.00,SummerDesignDay
8,21.720784448671354
11,4723972213.522203
256,3094916077.0259897
2,1, 7,21, 0,16,30.00,45.00,SummerDesignDay
8,21.681084832383254
11,4719807821.273244
256,3043036325.730138
2,1, 7,21, 0,16,45.00,60.00,SummerDesignDay
8,21.641326796728476
11,4714021924.409754
256,2908564300.275714
2,1, 7,21, 0,16, 0.00,60.00,SummerDesignDay
696,23.98782689587047
736,23.999128552179547
776,25.98525480959532
816,23.998437956845366
2,1, 7,21, 0,17, 0.00,15.00,SummerDesignDay
8,21.588221131429309
11,4708327821.9206089
256,2908323056.0178239
2,1, 7,21, 0,17,15.00,30.00,SummerDesignDay
8,21.53499969964235
11,4700129873.731922
256,3170582155.958947
2,1, 7,21, 0,17,30.00,45.00,SummerDesignDay
8,21.481667371722027
11,4704624189.558513
256,2967505679.5666534
2,1, 7,21, 0,17,45.00,60.00,SummerDesignDay
8,21.42822317147698
11,4696178764.715241
256,2908504248.8289139
2,1, 7,21, 0,17, 0.00,60.00,SummerDesignDay
696,23.98784083459782
736,23.999135159871174
776,25.985247618757577
816,23.99845713203051
2,1, 7,21, 0,18, 0.00,15.00,SummerDesignDay
8,21.36126189357475
11,4728783506.233523
256,3163698708.5005905
2,1, 7,21, 0,18,15.00,30.00,SummerDesignDay
8,21.294124428217594
11,4717260162.309406
256,3025167792.925091
2,1, 7,21, 0,18,30.00,45.00,SummerDesignDay
8,21.22680984257423
11,4713616000.353155
256,2974252871.821287
2,1, 7,21, 0,18,45.00,60.00,SummerDesignDay
8,21.15931786227956
11,4706988433.002659
256,3214448941.3140208
2,1, 7,21, 0,18, 0.00,60.00,SummerDesignDay
696,23.98784418716782
736,23.999148484218354
776,25.985267211921845
816,23.99847987914506
2,1, 7,21, 0,19, 0.00,15.00,SummerDesignDay
8,21.057742794759656
11,4762472205.706083
256,3163466372.99113
2,1, 7,21, 0,19,15.00,30.00,SummerDesignDay
8,20.95576719398477
11,4748193741.599856
256,3092318791.2371027
2,1, 7,21, 0,19,30.00,45.00,SummerDesignDay
8,20.853380308726839
11,4746266725.730328
256,3268819760.815465
2,1, 7,21, 0,19,45.00,60.00,SummerDesignDay
8,20.750583661392644
11,4738378294.013378
256,3268925267.8984439
2,1, 7,21, 0,19, 0.00,60.00,SummerDesignDay
696,23.987849202885508
736,23.999166424673129
776,25.985269468167965
816,23.998506577387095
2,1, 7,21, 0,20, 0.00,15.00,SummerDesignDay
8,20.674937724862624
11,4749584604.9444899
256,3061922257.8340399
2,1, 7,21, 0,20,15.00,30.00,SummerDesignDay
8,20.599073217758077
11,4730867276.704099
256,3213986187.3102986
2,1, 7,21, 0,20,30.00,45.00,SummerDesignDay
8,20.522979916101986
11,4883223188.865742
256,3275528137.419077
2,1, 7,21, 0,20,45.00,60.00,SummerDesignDay
8,20.446661088459409
11,4873193125.71791
256,3275593266.8288404
2,1, 7,21, 0,20, 0.00,60.00,SummerDesignDay
696,23.987797667927916
736,23.999181657205779
776,25.985267985705826
816,23.998520814333838
2,1, 7,21, 0,21, 0.00,15.00,SummerDesignDay
8,20.38404830308516
11,4814277378.831573
256,3125486660.2027199
2,1, 7,21, 0,21,15.00,30.00,SummerDesignDay
8,20.321288186392434
11,4807305217.787135
256,3109058892.585577
2,1, 7,21, 0,21,30.00,45.00,SummerDesignDay
8,20.258374971249056
11,4797823673.233263
256,3261807680.170024
2,1, 7,21, 0,21,45.00,60.00,SummerDesignDay
8,20.19530361990708
11,4789171529.435372
256,2972845163.786644
2,1, 7,21, 0,21, 0.00,60.00,SummerDesignDay
696,23.98769925884888
736,23.999154860428676
776,25.985186083666574
816,23.99847891593287
2,1, 7,21, 0,22, 0.00,15.00,SummerDesignDay
8,20.13208244849811
11,4805892893.16664
256,3268781491.129117
2,1, 7,21, 0,22,15.00,30.00,SummerDesignDay
8,20.068702801189454
11,4793159609.055856
256,3268889749.159151
2,1, 7,21, 0,22,30.00,45.00,SummerDesignDay
8,20.00517186709804
11,4788788140.129562
256,3058950290.28199
2,1, 7,21, 0,22,45.00,60.00,SummerDesignDay
8,19.941485234887624
11,4784678522.911427
256,3196755808.5136468
2,1, 7,21, 0,22, 0.00,60.00,SummerDesignDay
696,23.987667350887777
736,23.999140476243896
776,25.98516266161561
816,23.99845941994656
2,1, 7,21, 0,23, 0.00,15.00,SummerDesignDay
8,19.891841194221017
11,4522552816.656515
256,3254542195.3593337
2,1, 7,21, 0,23,15.00,30.00,SummerDesignDay
8,19.842102082714037
11,4529074421.290196
256,2958063918.9373338
2,1, 7,21, 0,23,30.00,45.00,SummerDesignDay
8,19.792267923486706
11,4538920967.490683
256,3254359435.6989028
2,1, 7,21, 0,23,45.00,60.00,SummerDesignDay
8,19.7423381019073
11,4541963791.5398449
256,2958050633.2334549
2,1, 7,21, 0,23, 0.00,60.00,SummerDesignDay
696,23.992822975771607
736,25.474978694437028
776,25.990956423808066
816,26.4116032833123
2,1, 7,21, 0,24, 0.00,15.00,SummerDesignDay
8,19.69231210730981
11,4444858861.917446
256,2914366243.048683
2,1, 7,21, 0,24,15.00,30.00,SummerDesignDay
8,19.64219032081547
11,4442729176.090352
256,3104162200.890512
2,1, 7,21, 0,24,30.00,45.00,SummerDesignDay
8,19.591971502420358
11,4440437326.7632069
256,2981792092.649041
2,1, 7,21, 0,24,45.00,60.00,SummerDesignDay
8,19.54165603023991
11,4441041135.338822
256,2890235713.255393
2,1, 7,21, 0,24, 0.00,60.00,SummerDesignDay
696,23.98775341354076
736,26.15023771327853
776,25.98528644541771
816,26.698916776418416
3,1, 7,21, 0,SummerDesignDay
697,67.01539978079673,55.400294748934857, 1, 9,100.0, 6, 4
737,46.51820468492331,41.66547475776753, 5,60,49.3004604649409,22,60
777,53.45620772629618,47.63369356227532, 2, 6,57.01795520033712, 6, 3
817,46.4903516044348,42.85499858055823,23,15,49.28351445144558,22,60
4,1, 7
7,25.312875000000007,21.0,21, 5,60,30.3,21,14,60
1,BUFFALO NIAGARA INTL AP ANN CLG .4% CONDNS WB=>MDB 1,  42.93, -78.73,  -5.00, 215.00
2,1, 7,21, 0, 1, 0.00,15.00,SummerDesignDay
8,20.03448486328125
11,4086193698.1275789
256,2870724300.591381
2,1, 7,21, 0, 1,15.00,30.00,SummerDesignDay
8,19.894989013671876
11,4083761838.7908518
256,2870693917.4798815
2,1, 7,21, 0, 1,30.00,45.00,SummerDesignDay
8,19.7554931640625
11,4082358102.3108355
256,2870600377.4532606
2,1, 7,21, 0, 1,45.00,60.00,SummerDesignDay
8,19.615996954992807
11,4077784947.717829
256,2870458088.0339038
2,1, 7,21, 0, 1, 0.00,60.00,SummerDesignDay
696,28.427464151327734
736,26.196451152328899
776,25.993269688617148
816,26.69929656449475
2,1, 7,21, 0, 2, 0.00,15.00,SummerDesignDay
8,19.522994995117189
11,3750672779.4179618
256,1799858844.2863334
2,1, 7,21, 0, 2,15.00,30.00,SummerDesignDay
8,19.42999267578125
11,3779936733.694571
256,1614319142.6855026
2,1, 7,21, 0, 2,30.00,45.00,SummerDesignDay
8,19.336990356445314
11,3783299893.548336
256,1614319142.6855026
2,1, 7,21, 0, 2,45.00,60.00,SummerDesignDay
8,19.243988037109376
11,3803419479.4622056
256,1614319142.6855026
2,1, 7,21, 0, 2, 0.00,60.00,SummerDesignDay
696,29.498873360269998
736,26.292629613186127
776,29.82926460605902
816,26.698940958521896
2,1, 7,21, 0, 3, 0.00,15.00,SummerDesignDay
8,19.174240112304689
11,3817207205.5212295
256,1614319142.6855026
2,1, 7,21, 0, 3,15.00,30.00,SummerDesignDay
8,19.1044921875
11,3826307679.185574
256,1614319142.6855026
2,1, 7,21, 0, 3,30.00,45.00,SummerDesignDay
8,19.034744262695314
11,3829774461.9984099
256,1614319142.6855026
2,1, 7,21, 0, 3,45.00,60.00,SummerDesignDay
8,18.96499632356402
11,3831039236.489188
256,1614319142.6855026
2,1, 7,21, 0, 3, 0.00,60.00,SummerDesignDay
696,29.66999632914475
736,26.388166314461857
776,29.97546422476182
816,26.698580843101476
2,1, 7,21, 0, 4, 0.00,15.00,SummerDesignDay
8,18.89524540049439
11,3831093676.016821
256,1614319142.6855026
2,1, 7,21, 0, 4,15.00,30.00,SummerDesignDay
8,18.825485229492189
11,3831030074.4396717
256,1614319142.6855026
2,1, 7,21, 0, 4,30.00,45.00,SummerDesignDay
8,18.7557373046875
11,3830905665.4228374
256,1614319142.6855026
2,1, 7,21, 0, 4,45.00,60.00,SummerDesignDay
8,18.685989379882814
11,3830153793.0380175
256,1614319142.6855026
2,1, 7,21, 0, 4, 0.00,60.00,SummerDesignDay
696,29.76030778216045
736,26.468057399493106
776,29.975645327764317
816,26.698680556343818
2,1, 7,21, 0, 5, 0.00,15.00,SummerDesignDay
8,18.63949530606028
11,3830372065.2985627
256,1614319142.6855026
2,1, 7,21, 0, 5,15.00,30.00,SummerDesignDay
8,18.592987060546876
11,3830506522.1355626
256,1614319142.6855026
2,1, 7,21, 0, 5,30.00,45.00,SummerDesignDay
8,18.54649177908492
11,3830713072.1367399
256,1614319142.6855026
2,1, 7,21, 0, 5,45.00,60.00,SummerDesignDay
8,18.49999810986028
11,3715056104.325778
256,1614319142.6855026
2,1, 7,21, 0, 5, 0.00,60.00,SummerDesignDay
696,29.837529994744718
736,26.54439390126456
776,29.9758971574791
816,26.698748564932285
2,1, 7,21, 0, 6, 0.00,15.00,SummerDesignDay
8,18.54649177908492
11,4134165828.132735
256,1614319142.6855026
2,1, 7,21, 0, 6,15.00,30.00,SummerDesignDay
8,18.592987060546876
11,4040426972.9898846
256,1614319142.6855026
2,1, 7,21, 0, 6,30.00,45.00,SummerDesignDay
8,18.63949530606028
11,3968460140.4576475
256,1614319142.6855026
2,1, 7,21, 0, 6,45.00,60.00,SummerDesignDay
8,18.685989379882814
11,3905920401.3408167
256,1614319142.6855026
2,1, 7,21, 0, 6, 0.00,60.00,SummerDesignDay
696,26.086827896035236
736,25.707667011995249
776,28.017327230032384
816,25.712779615529905
2,1, 7,21, 0, 7, 0.00,15.00,SummerDesignDay
8,18.848739624023439
11,4523123691.732251
256,2857980130.14497
2,1, 7,21, 0, 7,15.00,30.00,SummerDesignDay
8,19.011489868164064
11,4278536207.211082
256,2850223170.170083
2,1, 7,21, 0, 7,30.00,45.00,SummerDesignDay
8,19.174240112304689
11,4396976673.555283
256,2850135817.780615
2,1, 7,21, 0, 7,45.00,60.00,SummerDesignDay
8,19.336990356445314
11,4351645109.368492
256,2850047290.6492307
2,1, 7,21, 0, 7, 0.00,60.00,SummerDesignDay
696,24.05498707529491
736,25.010594033298938
776,26.04942078883677
816,25.004596784437177
2,1, 7,21, 0, 8, 0.00,15.00,SummerDesignDay
8,19.73223876953125
11,4814936606.410461
256,3275744319.011266
2,1, 7,21, 0, 8,15.00,30.00,SummerDesignDay
8,20.127487182617189
11,4752763884.936204
256,3275679060.986575
2,1, 7,21, 0, 8,30.00,45.00,SummerDesignDay
8,20.522735595703126
11,4816640536.119178
256,3068666891.4018509
2,1, 7,21, 0, 8,45.00,60.00,SummerDesignDay
8,20.917992548817627
11,4843507603.972767
256,3207242854.5497696
2,1, 7,21, 0, 8, 0.00,60.00,SummerDesignDay
696,23.990066089914433
736,24.0425322942362
776,25.98778306979923
816,24.034833701664483
2,1, 7,21, 0, 9, 0.00,15.00,SummerDesignDay
8,21.35974061960832
11,4858167669.655883
256,3268806982.5115168
2,1, 7,21, 0, 9,15.00,30.00,SummerDesignDay
8,21.80149265905943
11,4885134527.759536
256,3268913408.270561
2,1, 7,21, 0, 9,30.00,45.00,SummerDesignDay
8,22.243240356445314
11,4937925804.7506
256,2986967469.7277519
2,1, 7,21, 0, 9,45.00,60.00,SummerDesignDay
8,22.420023807696297
11,4971677884.977571
256,3268760248.1261799
2,1, 7,21, 0, 9, 0.00,60.00,SummerDesignDay
696,23.98806153653905
736,23.999077185039356
776,25.985420836337455
816,23.997878411504318
2,1, 7,21, 0,10, 0.00,15.00,SummerDesignDay
8,22.52939429544905
11,4941822767.8695139
256,3231837146.651963
2,1, 7,21, 0,10,15.00,30.00,SummerDesignDay
8,22.638294333869877
11,4960642425.579929
256,2980604743.702935
2,1, 7,21, 0,10,30.00,45.00,SummerDesignDay
8,22.74672657663008
11,4989429358.459774
256,3254391595.352867
2,1, 7,21, 0,10,45.00,60.00,SummerDesignDay
8,22.854695006230427
11,5007535367.357429
256,2958097141.312666
2,1, 7,21, 0,10, 0.00,60.00,SummerDesignDay
696,23.98797710286187
736,23.99908142761686
776,25.98528889144242
816,23.997611006754004
2,1, 7,21, 0,11, 0.00,15.00,SummerDesignDay
8,22.949580571591015
11,4995740056.06067
256,3152555825.2677319
2,1, 7,21, 0,11,15.00,30.00,SummerDesignDay
8,23.0441059976386
11,5008572612.71446
256,3036291970.3319866
2,1, 7,21, 0,11,30.00,45.00,SummerDesignDay
8,23.138280905067519
11,5021008209.535032
256,2963137751.962364
2,1, 7,21, 0,11,45.00,60.00,SummerDesignDay
8,23.232104587122938
11,5034735139.25942
256,3225564372.247783
2,1, 7,21, 0,11, 0.00,60.00,SummerDesignDay
696,23.987939971002676
736,23.999081039258099
776,25.985269941626254
816,23.997599241517059
2,1, 7,21, 0,12, 0.00,15.00,SummerDesignDay
8,23.294458182257715
11,5067501849.014697
256,2957954392.492381
2,1, 7,21, 0,12,15.00,30.00,SummerDesignDay
8,23.356656880409554
11,5074859273.829403
256,3254303338.3343536
2,1, 7,21, 0,12,30.00,45.00,SummerDesignDay
8,23.41870192494561
11,5081648059.032028
256,2957937853.59472
2,1, 7,21, 0,12,45.00,60.00,SummerDesignDay
8,23.480593542408348
11,5091201114.295089
256,3254294118.6201517
2,1, 7,21, 0,12, 0.00,60.00,SummerDesignDay
696,23.987889265394484
736,23.99908301282164
776,25.98524553584825
816,23.997615477180543
2,1, 7,21, 0,13, 0.00,15.00,SummerDesignDay
8,23.529998675577663
11,5079678834.265137
256,2942313864.8010265
2,1, 7,21, 0,13,15.00,30.00,SummerDesignDay
8,23.579306427538606
11,5090052255.708136
256,3246509126.60189
2,1, 7,21, 0,13,30.00,45.00,SummerDesignDay
8,23.62851242394268
11,5099925923.723242
256,2942435302.580794
2,1, 7,21, 0,13,45.00,60.00,SummerDesignDay
8,23.677626430315248
11,5111637424.549783
256,3156448771.5704367
2,1, 7,21, 0,13, 0.00,60.00,SummerDesignDay
696,23.98780162173735
736,23.999062982975255
776,25.98517719989647
816,23.99760692609022
2,1, 7,21, 0,14, 0.00,15.00,SummerDesignDay
8,23.708274654966226
11,5092609035.47503
256,3018389191.6392576
2,1, 7,21, 0,14,15.00,30.00,SummerDesignDay
8,23.738881563111908
11,5093353029.662085
256,2925833730.2407515
2,1, 7,21, 0,14,30.00,45.00,SummerDesignDay
8,23.76945433566311
11,5093489496.909397
256,3174519300.190584
2,1, 7,21, 0,14,45.00,60.00,SummerDesignDay
8,23.799986320868798
11,5103696925.372531
256,2989656402.6382925
2,1, 7,21, 0,14, 0.00,60.00,SummerDesignDay
696,23.987756849998858
736,23.999040058386666
776,25.985136752977266
816,23.997598011614003
2,1, 7,21, 0,15, 0.00,15.00,SummerDesignDay
8,23.799986320868798
11,5072395472.687654
256,2908446617.4457767
2,1, 7,21, 0,15,15.00,30.00,SummerDesignDay
8,23.799986320868798
11,5071325848.6625399
256,3019315193.327383
2,1, 7,21, 0,15,30.00,45.00,SummerDesignDay
8,23.799986320868798
11,5072059128.859566
256,3118554288.8720495
2,1, 7,21, 0,15,45.00,60.00,SummerDesignDay
8,23.799986320868798
11,5071703849.772618
256,2908623658.34043
2,1, 7,21, 0,15, 0.00,60.00,SummerDesignDay
696,23.987769254399958
736,23.99903623285055
776,25.985135992541794
816,23.997612717566665
2,1, 7,21, 0,16, 0.00,15.00,SummerDesignDay
8,23.763342191943058
11,5069372301.088703
256,2908385210.077344
2,1, 7,21, 0,16,15.00,30.00,SummerDesignDay
8,23.726643883214217
11,5067137464.914646
256,3094916077.031519
2,1, 7,21, 0,16,30.00,45.00,SummerDesignDay
8,23.689888257911428
11,5066862794.80935
256,3043036325.724617
2,1, 7,21, 0,16,45.00,60.00,SummerDesignDay
8,23.653081835774505
11,5065282182.677658
256,2908564300.2757098
2,1, 7,21, 0,16, 0.00,60.00,SummerDesignDay
696,23.987808888611626
736,23.99904078232029
776,25.985144915790316
816,23.997638336999115
2,1, 7,21, 0,17, 0.00,15.00,SummerDesignDay
8,23.603923719146495
11,5065300677.493794
256,2908323056.0178196
2,1, 7,21, 0,17,15.00,30.00,SummerDesignDay
8,23.55466446732659
11,5063307966.139115
256,3170582155.9644825
2,1, 7,21, 0,17,30.00,45.00,SummerDesignDay
8,23.505308555416005
11,5073423299.648192
256,2967505679.5611298
2,1, 7,21, 0,17,45.00,60.00,SummerDesignDay
8,23.4558543827806
11,5072436792.86846
256,2908504248.8289096
2,1, 7,21, 0,17, 0.00,60.00,SummerDesignDay
696,23.987824153121616
736,23.99904745679633
776,25.98513766641346
816,23.997658089420804
2,1, 7,21, 0,18, 0.00,15.00,SummerDesignDay
8,23.393901322312414
11,5104155968.180243
256,3163698708.5069706
2,1, 7,21, 0,18,15.00,30.00,SummerDesignDay
8,23.33179517863699
11,5030207836.784616
256,3025167792.9187204
2,1, 7,21, 0,18,30.00,45.00,SummerDesignDay
8,23.269534315322305
11,5014329029.610128
256,2974252871.827635
2,1, 7,21, 0,18,45.00,60.00,SummerDesignDay
8,23.207119318496696
11,5000349039.901559
256,3214448941.3076727
2,1, 7,21, 0,18, 0.00,60.00,SummerDesignDay
696,23.987827947119805
736,23.999061158116726
776,25.985157237071904
816,23.99768133918917
2,1, 7,21, 0,19, 0.00,15.00,SummerDesignDay
8,23.11320144187493
11,5045398808.380497
256,3163466372.9995739
2,1, 7,21, 0,19,15.00,30.00,SummerDesignDay
8,23.0189367248522
11,5021332071.86434
256,3092318791.2286698
2,1, 7,21, 0,19,30.00,45.00,SummerDesignDay
8,22.924312313607478
11,5011167814.618803
256,3268819760.8154628
2,1, 7,21, 0,19,45.00,60.00,SummerDesignDay
8,22.82933132300861
11,4995430939.82896
256,3268925267.8984415
2,1, 7,21, 0,19, 0.00,60.00,SummerDesignDay
696,23.987833475753413
736,23.99907933845794
776,25.98515911611395
816,23.997707871634
2,1, 7,21, 0,20, 0.00,15.00,SummerDesignDay
8,22.75945089348938
11,5001193862.668063
256,3061922257.843582
2,1, 7,21, 0,20,15.00,30.00,SummerDesignDay
8,22.689380537094857
11,4976652019.370883
256,3213986187.3007585
2,1, 7,21, 0,20,30.00,45.00,SummerDesignDay
8,22.6191110648834
11,5123650979.5697569
256,3275528137.4190747
2,1, 7,21, 0,20,45.00,60.00,SummerDesignDay
8,22.548645905899027
11,5108710468.150852
256,3275593266.8288385
2,1, 7,21, 0,20, 0.00,60.00,SummerDesignDay
696,23.98777891657462
736,23.99909397229446
776,25.985155995863477
816,23.99771778193222
2,1, 7,21, 0,21, 0.00,15.00,SummerDesignDay
8,22.490844247869313
11,5046376917.0414
256,3125486660.210381
2,1, 7,21, 0,21,15.00,30.00,SummerDesignDay
8,22.43291428736413
11,5035757351.041536
256,3109058892.5779259
2,1, 7,21, 0,21,30.00,45.00,SummerDesignDay
8,22.374851547664414
11,5021749769.856223
256,3261807680.170022
2,1, 7,21, 0,21,45.00,60.00,SummerDesignDay
8,22.312987690310977
11,5006985356.932871
256,2972845163.78664
2,1, 7,21, 0,21, 0.00,60.00,SummerDesignDay
696,23.987678140868966
736,23.99906555515519
776,25.98507252964271
816,23.997662898946193
2,1, 7,21, 0,22, 0.00,15.00,SummerDesignDay
8,22.103744506835939
11,4994259157.326307
256,3268781491.129115
2,1, 7,21, 0,22,15.00,30.00,SummerDesignDay
8,21.894485473632814
11,4954741525.772366
256,3268889749.159149
2,1, 7,21, 0,22,30.00,45.00,SummerDesignDay
8,21.685237627773917
11,4933172150.962956
256,3058950290.2904016
2,1, 7,21, 0,22,45.00,60.00,SummerDesignDay
8,21.475995587251039
11,4912326476.888774
256,3196755808.5052359
2,1, 7,21, 0,22, 0.00,60.00,SummerDesignDay
696,23.987625628849796
736,23.99904835670901
776,25.98504173647747
816,23.997667797505476
2,1, 7,21, 0,23, 0.00,15.00,SummerDesignDay
8,21.313245597319697
11,4630478532.0879
256,3254542195.3593275
2,1, 7,21, 0,23,15.00,30.00,SummerDesignDay
8,21.150492515933274
11,4624039398.37978
256,2957983631.8736927
2,1, 7,21, 0,23,30.00,45.00,SummerDesignDay
8,20.98774680278067
11,4622696330.08073
256,3254359412.0614116
2,1, 7,21, 0,23,45.00,60.00,SummerDesignDay
8,20.824995071347869
11,4615059123.08976
256,2958050564.8547708
2,1, 7,21, 0,23, 0.00,60.00,SummerDesignDay
696,23.993121069760748
736,25.446776021838774
776,25.99128805695387
816,26.368217257898654
2,1, 7,21, 0,24, 0.00,15.00,SummerDesignDay
8,20.662246704101564
11,4510195287.180508
256,2914458035.865816
2,1, 7,21, 0,24,15.00,30.00,SummerDesignDay
8,20.499496459960939
11,4497063547.464175
256,3104162041.3128187
2,1, 7,21, 0,24,30.00,45.00,SummerDesignDay
8,20.336746215820314
11,4485249022.860288
256,2981700705.426651
2,1, 7,21, 0,24,45.00,60.00,SummerDesignDay
8,20.173995840857065
11,4476093206.514055
256,2890235633.9229347
2,1, 7,21, 0,24, 0.00,60.00,SummerDesignDay
696,23.987705426657095
736,26.091765239911874
776,25.985203808586406
816,26.698254739993133
3,1, 7,21, 0,SummerDesignDay
697,67.37610901138227,55.65261070155796, 1, 9,100.0, 6, 3
737,47.05493944432613,42.08799319826563, 5,60,49.8398416145279,22,60
777,53.73624875479276,47.80641340694529, 2, 6,57.183960535027669, 6, 3
817,48.04038575504191,43.55498058710795, 5,60,51.23167232428537,22,15
4,1, 7
7,22.812875000000003,18.5,21, 5,60,27.8,21,14,60
1,BUFFALO NIAGARA INTL AP ANN HTG 99.6% CONDNS DB 1,  42.93, -78.73,  -5.00, 215.00
2,1, 1,21, 0, 1, 0.00,15.00,WinterDesignDay
8,-16.3
11,851605917.7428247
256,4530024428.128364
2,1, 1,21, 0, 1,15.00,30.00,WinterDesignDay
8,-16.3